
#(C) 2014 by Fachinformationszentrum Karlsruhe.  All rights reserved.
data_90693-ICSD
_database_code_ICSD 90693
_audit_creation_date 2002-04-01
_audit_update_record 2006-04-01
_chemical_name_systematic 'Lead titanate'
_chemical_formula_structural 'Pb (Ti O3)'
_chemical_formula_sum 'O3 Pb1 Ti1'
_chemical_name_structure_type PbTiO3
_chemical_name_mineral Macedonite
_exptl_crystal_density_diffrn 7.99
_publ_section_title

;
Structural investigations on Pb (Zrx Ti1-x) O3 solid solutions using the X-ray
Rietveld method
;
loop_
_citation_id
_citation_journal_full
_citation_year
_citation_journal_volume
_citation_page_first
_citation_page_last
_citation_journal_id_ASTM
primary 'Journal of Materials Science' 2000 35 1571 1575 JMTSAS
loop_
_publ_author_name
'Joseph, J.'
'Vimala, T.M.'
'Sivasubramanian, V.'
'Murthy, V.R.K.'
_cell_length_a 3.9039(2)
_cell_length_b 3.9039(2)
_cell_length_c 4.1348(3)
_cell_angle_alpha 90.
_cell_angle_beta 90.
_cell_angle_gamma 90.
_cell_volume 63.02
_cell_formula_units_Z 1
_symmetry_space_group_name_H-M 'P 4 m m'
_symmetry_Int_Tables_number 99
_refine_ls_R_factor_all 0.042
loop_
_symmetry_equiv_pos_site_id
_symmetry_equiv_pos_as_xyz
1 'y, -x, z'
2 '-y, x, z'
3 '-y, -x, z'
4 'y, x, z'
5 'x, -y, z'
6 '-x, y, z'
7 '-x, -y, z'
8 'x, y, z'
loop_
_atom_type_symbol
_atom_type_oxidation_number
Pb2+ 2
Ti4+ 4
O2- -2
loop_
_atom_site_label
_atom_site_type_symbol
_atom_site_symmetry_multiplicity
_atom_site_Wyckoff_symbol
_atom_site_fract_x
_atom_site_fract_y
_atom_site_fract_z
_atom_site_B_iso_or_equiv
_atom_site_occupancy
_atom_site_attached_hydrogens
Pb1 Pb2+ 1 a 0 0 0 0.53(2) 1. 0
Ti1 Ti4+ 1 b 0.5 0.5 0.5281(28) 0.29(11) 1. 0
O1 O2- 2 c 0.5 0 0.6130(29) 1.42(31) 1. 0
O2 O2- 1 b 0.5 0.5 0.1339(40) 1.42(31) 1. 0
#End of TTdata_90693-ICSD